<?xml version="1.0" encoding="UTF-8"?>

<!-- generated on Mon 08 Jul 2013 10:09:11 AM CEST by SUMO gui Version 0.17.1
<?xml version="1.0" encoding="UTF-8"?>

<configuration xmlns:xsi="http://www.w3.org/2001/XMLSchema-instance" xsi:noNamespaceSchemaLocation="http://sumo.sf.net/xsd/sumo-gui.exeConfiguration.xsd">

    <input>
        <net-file value="/home/sertinell/git/inet/examples/VACaMobil/100Cars/duaIterate/../downtown.mapa.xml"/>
        <route-files value="/home/sertinell/git/inet/examples/VACaMobil/100Cars/duaIterate/downtown_049.rou.xml"/>
        <additional-files value="/home/sertinell/git/inet/examples/VACaMobil/100Cars/duaIterate/dua_dump_049.add.xml"/>
    </input>

    <output>
        <summary-output value="/home/sertinell/git/inet/examples/VACaMobil/100Cars/duaIterate/summary_049.xml"/>
        <tripinfo-output value="/home/sertinell/git/inet/examples/VACaMobil/100Cars/duaIterate/tripinfo_049.xml"/>
    </output>

    <time>
        <begin value="0"/>
    </time>

    <processing>
        <route-steps value="200"/>
        <no-internal-links value="false"/>
        <time-to-teleport value="300"/>
        <sloppy-insert value="false"/>
        <lanechange.allow-swap value="true"/>
    </processing>

    <report>
        <verbose value="true"/>
        <no-warnings value="false"/>
        <no-step-log value="true"/>
    </report>

    <random_number>
        <random value="false"/>
    </random_number>

</configuration>
-->

<tripinfos>
</tripinfos>
